 Entering Gaussian System, Link 0=C:\Users\Meta\AppData\Local\Programs\g16w\g16.exe
 Input=job.gjf
 Output=C:\Users\Meta\Project\Workspaces\orgsynflow\data\ts-workflows\ts-d8d8dcf70bc2\scan\scan-00\attempt-1\job.out
 Initial command:
 C:\Users\Meta\AppData\Local\Programs\g16w\l1.exe ".\Gau-37612.inp" "C:\Users\Meta\Project\Workspaces\orgsynflow\data\ts-workflows\ts-d8d8dcf70bc2\scan\scan-00\attempt-1\job.out" /scrdir=".\"
 Entering Link 1 = C:\Users\Meta\AppData\Local\Programs\g16w\l1.exe PID=     32236.
  
 Copyright (c) 1988,1990,1992,1993,1995,1998,2003,2009,2016,
            Gaussian, Inc.  All Rights Reserved.
  
 This is part of the Gaussian(R) 16 program.  It is based on
 the Gaussian(R) 09 system (copyright 2009, Gaussian, Inc.),
 the Gaussian(R) 03 system (copyright 2003, Gaussian, Inc.),
 the Gaussian(R) 98 system (copyright 1998, Gaussian, Inc.),
 the Gaussian(R) 94 system (copyright 1995, Gaussian, Inc.),
 the Gaussian 92(TM) system (copyright 1992, Gaussian, Inc.),
 the Gaussian 90(TM) system (copyright 1990, Gaussian, Inc.),
 the Gaussian 88(TM) system (copyright 1988, Gaussian, Inc.),
 the Gaussian 86(TM) system (copyright 1986, Carnegie Mellon
 University), and the Gaussian 82(TM) system (copyright 1983,
 Carnegie Mellon University). Gaussian is a federally registered
 trademark of Gaussian, Inc.
  
 This software contains proprietary and confidential information,
 including trade secrets, belonging to Gaussian, Inc.
  
 This software is provided under written license and may be
 used, copied, transmitted, or stored only in accord with that
 written license.
  
 The following legend is applicable only to US Government
 contracts under FAR:
  
                    RESTRICTED RIGHTS LEGEND
  
 Use, reproduction and disclosure by the US Government is
 subject to restrictions as set forth in subparagraphs (a)
 and (c) of the Commercial Computer Software - Restricted
 Rights clause in FAR 52.227-19.
  
 Gaussian, Inc.
 340 Quinnipiac St., Bldg. 40, Wallingford CT 06492
  
  
 ---------------------------------------------------------------
 Warning -- This program may not be used in any manner that
 competes with the business of Gaussian, Inc. or will provide
 assistance to any competitor of Gaussian, Inc.  The licensee
 of this program is prohibited from giving any competitor of
 Gaussian, Inc. access to this program.  By using this program,
 the user acknowledges that Gaussian, Inc. is engaged in the
 business of creating and licensing software in the field of
 computational chemistry and represents and warrants to the
 licensee that it is not a competitor of Gaussian, Inc. and that
 it will not use this program in any manner prohibited above.
 ---------------------------------------------------------------
  

 Cite this work as:
 Gaussian 16, Revision A.03,
 M. J. Frisch, G. W. Trucks, H. B. Schlegel, G. E. Scuseria, 
 M. A. Robb, J. R. Cheeseman, G. Scalmani, V. Barone, 
 G. A. Petersson, H. Nakatsuji, X. Li, M. Caricato, A. V. Marenich, 
 J. Bloino, B. G. Janesko, R. Gomperts, B. Mennucci, H. P. Hratchian, 
 J. V. Ortiz, A. F. Izmaylov, J. L. Sonnenberg, D. Williams-Young, 
 F. Ding, F. Lipparini, F. Egidi, J. Goings, B. Peng, A. Petrone, 
 T. Henderson, D. Ranasinghe, V. G. Zakrzewski, J. Gao, N. Rega, 
 G. Zheng, W. Liang, M. Hada, M. Ehara, K. Toyota, R. Fukuda, 
 J. Hasegawa, M. Ishida, T. Nakajima, Y. Honda, O. Kitao, H. Nakai, 
 T. Vreven, K. Throssell, J. A. Montgomery, Jr., J. E. Peralta, 
 F. Ogliaro, M. J. Bearpark, J. J. Heyd, E. N. Brothers, K. N. Kudin, 
 V. N. Staroverov, T. A. Keith, R. Kobayashi, J. Normand, 
 K. Raghavachari, A. P. Rendell, J. C. Burant, S. S. Iyengar, 
 J. Tomasi, M. Cossi, J. M. Millam, M. Klene, C. Adamo, R. Cammi, 
 J. W. Ochterski, R. L. Martin, K. Morokuma, O. Farkas, 
 J. B. Foresman, and D. J. Fox, Gaussian, Inc., Wallingford CT, 2016.
 
 ******************************************
 Gaussian 16:  EM64W-G16RevA.03 17-Dec-2016
                20-Jun-2026 
 ******************************************
 %nprocshared=4
 Will use up to    4 processors via shared memory.
 %mem=4GB
 --------------------------------------------------------
 # opt=(modredundant,calcfc,maxcycles=120) wB97XD/def2SVP
 --------------------------------------------------------
 1/6=120,10=4,18=120,19=15,26=3,38=1/1,3;
 2/9=110,12=2,17=6,18=5,40=1/2;
 3/5=43,7=101,11=2,25=1,30=1,71=2,74=-58,140=1/1,2,3;
 4//1;
 5/5=2,38=5/2;
 8/6=4,10=90,11=11/1;
 11/6=1,8=1,9=11,15=111,16=1/1,2,10;
 10/6=1,13=1/2;
 6/7=2,8=2,9=2,10=2,28=1/1;
 7/10=1,18=20,25=1/1,2,3,16;
 1/6=120,10=4,18=20,19=15,26=3/3(2);
 2/9=110/2;
 99//99;
 2/9=110/2;
 3/5=43,7=101,11=2,25=1,30=1,71=1,74=-58/1,2,3;
 4/5=5,16=3,69=1/1;
 5/5=2,38=5/2;
 7//1,2,3,16;
 1/6=120,18=20,19=15,26=3/3(-5);
 2/9=110/2;
 6/7=2,8=2,9=2,10=2,19=2,28=1/1;
 99/9=1/99;
 -----------------------
 OrgSynFlow scan scan-00
 -----------------------
 Symbolic Z-matrix:
 Charge =  0 Multiplicity = 1
 C                     1.56883   0.4333   -0.02356 
 C                     0.76889   1.5747   -0.07674 
 C                    -0.62041   1.45236  -0.0967 
 C                    -1.20978   0.1886   -0.06349 
 C                    -0.40984  -0.95281  -0.0103 
 C                     0.97946  -0.83046   0.00966 
 O                    -1.25814  -5.46202  -0.31854 
 C                    -1.46774  -4.32083   0.06694 
 C                    -4.35532  -3.05395   0.27306 
 C                    -2.6089   -2.31141   0.68119 
 C                    -1.12175  -2.20036   0.84466 
 O                    -0.56129  -1.1913    1.24782 
 N                    -0.55737  -3.38712   0.47273 
 Br                    1.28292  -3.70289   0.51497 
 H                     2.65126   0.52862  -0.008 
 H                     1.22808   2.55932  -0.10262 
 H                    -1.24366   2.34164  -0.13814 
 H                    -2.29221   0.09327  -0.07904 
 H                    -0.86903  -1.93742   0.01557 
 H                     1.60271  -1.71975   0.05109 
 H                    -3.31084  -3.70961  -0.82189 
 H                    -3.45122  -4.30292   0.85821 
 H                    -3.10086  -2.15573   1.64575 
 H                    -2.96049  -1.56242  -0.03436 
 
 Add virtual bond connecting atoms H22        and C9         Dist= 3.12D+00.
 Add virtual bond connecting atoms H21        and C9         Dist= 3.12D+00.
 Add virtual bond connecting atoms H21        and H22        Dist= 3.38D+00.
 Add virtual bond connecting atoms C10        and C9         Dist= 3.67D+00.
 Add virtual bond connecting atoms H23        and C9         Dist= 3.90D+00.
 Add virtual bond connecting atoms H24        and C9         Dist= 3.90D+00.
 The following ModRedundant input section has been read:
 B       8       9 3.1600 B                                                    
 
 Iteration  1 RMS(Cart)=  0.00000000 RMS(Int)=  0.00000000

 GradGradGradGradGradGradGradGradGradGradGradGradGradGradGradGradGradGrad
 Berny optimization.
 Initialization pass.
                           ----------------------------
                           !    Initial Parameters    !
                           ! (Angstroms and Degrees)  !
 --------------------------                            --------------------------
 ! Name  Definition              Value          Derivative Info.                !
 --------------------------------------------------------------------------------
 ! R1    R(1,2)                  1.3948         calculate D2E/DX2 analytically  !
 ! R2    R(1,6)                  1.3948         calculate D2E/DX2 analytically  !
 ! R3    R(1,15)                 1.0867         calculate D2E/DX2 analytically  !
 ! R4    R(2,3)                  1.3948         calculate D2E/DX2 analytically  !
 ! R5    R(2,16)                 1.0867         calculate D2E/DX2 analytically  !
 ! R6    R(3,4)                  1.3948         calculate D2E/DX2 analytically  !
 ! R7    R(3,17)                 1.0867         calculate D2E/DX2 analytically  !
 ! R8    R(4,5)                  1.3948         calculate D2E/DX2 analytically  !
 ! R9    R(4,18)                 1.0867         calculate D2E/DX2 analytically  !
 ! R10   R(5,6)                  1.3948         calculate D2E/DX2 analytically  !
 ! R11   R(5,11)                 1.6716         calculate D2E/DX2 analytically  !
 ! R12   R(5,12)                 1.2895         calculate D2E/DX2 analytically  !
 ! R13   R(5,19)                 1.0867         calculate D2E/DX2 analytically  !
 ! R14   R(6,20)                 1.0867         calculate D2E/DX2 analytically  !
 ! R15   R(7,8)                  1.2226         calculate D2E/DX2 analytically  !
 ! R16   R(8,9)                  3.16           calculate D2E/DX2 analytically  !
 ! R17   R(8,13)                 1.3657         calculate D2E/DX2 analytically  !
 ! R18   R(9,10)                 1.9411         calculate D2E/DX2 analytically  !
 ! R19   R(9,21)                 1.6492         calculate D2E/DX2 analytically  !
 ! R20   R(9,22)                 1.6492         calculate D2E/DX2 analytically  !
 ! R21   R(9,23)                 2.0651         calculate D2E/DX2 analytically  !
 ! R22   R(9,24)                 2.0651         calculate D2E/DX2 analytically  !
 ! R23   R(10,11)                1.5002         calculate D2E/DX2 analytically  !
 ! R24   R(10,23)                1.0939         calculate D2E/DX2 analytically  !
 ! R25   R(10,24)                1.0939         calculate D2E/DX2 analytically  !
 ! R26   R(11,12)                1.2226         calculate D2E/DX2 analytically  !
 ! R27   R(11,13)                1.3657         calculate D2E/DX2 analytically  !
 ! R28   R(11,19)                0.9058         calculate D2E/DX2 analytically  !
 ! R29   R(13,14)                1.8677         calculate D2E/DX2 analytically  !
 ! R30   R(21,22)                1.7873         calculate D2E/DX2 analytically  !
 ! A1    A(2,1,6)              120.0            calculate D2E/DX2 analytically  !
 ! A2    A(2,1,15)             120.0            calculate D2E/DX2 analytically  !
 ! A3    A(6,1,15)             120.0            calculate D2E/DX2 analytically  !
 ! A4    A(1,2,3)              120.0            calculate D2E/DX2 analytically  !
 ! A5    A(1,2,16)             120.0            calculate D2E/DX2 analytically  !
 ! A6    A(3,2,16)             120.0            calculate D2E/DX2 analytically  !
 ! A7    A(2,3,4)              120.0            calculate D2E/DX2 analytically  !
 ! A8    A(2,3,17)             120.0            calculate D2E/DX2 analytically  !
 ! A9    A(4,3,17)             120.0            calculate D2E/DX2 analytically  !
 ! A10   A(3,4,5)              120.0            calculate D2E/DX2 analytically  !
 ! A11   A(3,4,18)             120.0            calculate D2E/DX2 analytically  !
 ! A12   A(5,4,18)             120.0            calculate D2E/DX2 analytically  !
 ! A13   A(4,5,6)              120.0            calculate D2E/DX2 analytically  !
 ! A14   A(4,5,11)             112.7051         calculate D2E/DX2 analytically  !
 ! A15   A(4,5,12)              96.9609         calculate D2E/DX2 analytically  !
 ! A16   A(4,5,19)             120.0            calculate D2E/DX2 analytically  !
 ! A17   A(6,5,11)             118.839          calculate D2E/DX2 analytically  !
 ! A18   A(6,5,12)              96.8487         calculate D2E/DX2 analytically  !
 ! A19   A(6,5,19)             120.0            calculate D2E/DX2 analytically  !
 ! A20   A(12,5,19)             76.0874         calculate D2E/DX2 analytically  !
 ! A21   A(1,6,5)              120.0            calculate D2E/DX2 analytically  !
 ! A22   A(1,6,20)             120.0            calculate D2E/DX2 analytically  !
 ! A23   A(5,6,20)             120.0            calculate D2E/DX2 analytically  !
 ! A24   A(7,8,9)              123.4648         calculate D2E/DX2 analytically  !
 ! A25   A(7,8,13)             128.1355         calculate D2E/DX2 analytically  !
 ! A26   A(9,8,13)             108.3997         calculate D2E/DX2 analytically  !
 ! A27   A(8,9,10)              49.0754         calculate D2E/DX2 analytically  !
 ! A28   A(8,9,21)              38.6075         calculate D2E/DX2 analytically  !
 ! A29   A(8,9,22)              38.6075         calculate D2E/DX2 analytically  !
 ! A30   A(8,9,23)              70.2842         calculate D2E/DX2 analytically  !
 ! A31   A(8,9,24)              70.2845         calculate D2E/DX2 analytically  !
 ! A32   A(10,9,21)             73.8511         calculate D2E/DX2 analytically  !
 ! A33   A(10,9,22)             73.8511         calculate D2E/DX2 analytically  !
 ! A34   A(21,9,23)            103.2688         calculate D2E/DX2 analytically  !
 ! A35   A(21,9,24)             76.1453         calculate D2E/DX2 analytically  !
 ! A36   A(22,9,23)             76.145          calculate D2E/DX2 analytically  !
 ! A37   A(22,9,24)            103.269          calculate D2E/DX2 analytically  !
 ! A38   A(23,9,24)             51.2828         calculate D2E/DX2 analytically  !
 ! A39   A(9,10,11)            160.5768         calculate D2E/DX2 analytically  !
 ! A40   A(11,10,23)           109.8282         calculate D2E/DX2 analytically  !
 ! A41   A(11,10,24)           109.8282         calculate D2E/DX2 analytically  !
 ! A42   A(23,10,24)           109.5595         calculate D2E/DX2 analytically  !
 ! A43   A(5,11,10)            114.9417         calculate D2E/DX2 analytically  !
 ! A44   A(5,11,13)            109.4656         calculate D2E/DX2 analytically  !
 ! A45   A(10,11,12)           123.4648         calculate D2E/DX2 analytically  !
 ! A46   A(10,11,13)           108.3997         calculate D2E/DX2 analytically  !
 ! A47   A(10,11,19)           101.4399         calculate D2E/DX2 analytically  !
 ! A48   A(12,11,13)           128.1355         calculate D2E/DX2 analytically  !
 ! A49   A(12,11,19)            86.2354         calculate D2E/DX2 analytically  !
 ! A50   A(13,11,19)            83.5507         calculate D2E/DX2 analytically  !
 ! A51   A(8,13,11)            113.5485         calculate D2E/DX2 analytically  !
 ! A52   A(8,13,14)            123.2258         calculate D2E/DX2 analytically  !
 ! A53   A(11,13,14)           123.2258         calculate D2E/DX2 analytically  !
 ! D1    D(6,1,2,3)              0.0001         calculate D2E/DX2 analytically  !
 ! D2    D(6,1,2,16)          -180.0            calculate D2E/DX2 analytically  !
 ! D3    D(15,1,2,3)          -180.0            calculate D2E/DX2 analytically  !
 ! D4    D(15,1,2,16)            0.0            calculate D2E/DX2 analytically  !
 ! D5    D(2,1,6,5)              0.0            calculate D2E/DX2 analytically  !
 ! D6    D(2,1,6,20)          -180.0            calculate D2E/DX2 analytically  !
 ! D7    D(15,1,6,5)          -180.0            calculate D2E/DX2 analytically  !
 ! D8    D(15,1,6,20)            0.0            calculate D2E/DX2 analytically  !
 ! D9    D(1,2,3,4)             -0.0001         calculate D2E/DX2 analytically  !
 ! D10   D(1,2,3,17)           179.9999         calculate D2E/DX2 analytically  !
 ! D11   D(16,2,3,4)           180.0            calculate D2E/DX2 analytically  !
 ! D12   D(16,2,3,17)            0.0            calculate D2E/DX2 analytically  !
 ! D13   D(2,3,4,5)              0.0            calculate D2E/DX2 analytically  !
 ! D14   D(2,3,4,18)          -180.0            calculate D2E/DX2 analytically  !
 ! D15   D(17,3,4,5)          -180.0            calculate D2E/DX2 analytically  !
 ! D16   D(17,3,4,18)            0.0            calculate D2E/DX2 analytically  !
 ! D17   D(3,4,5,6)              0.0            calculate D2E/DX2 analytically  !
 ! D18   D(3,4,5,11)           147.7073         calculate D2E/DX2 analytically  !
 ! D19   D(3,4,5,12)           102.076          calculate D2E/DX2 analytically  !
 ! D20   D(3,4,5,19)          -180.0            calculate D2E/DX2 analytically  !
 ! D21   D(18,4,5,6)          -179.9999         calculate D2E/DX2 analytically  !
 ! D22   D(18,4,5,11)          -32.2927         calculate D2E/DX2 analytically  !
 ! D23   D(18,4,5,12)          -77.924          calculate D2E/DX2 analytically  !
 ! D24   D(18,4,5,19)            0.0            calculate D2E/DX2 analytically  !
 ! D25   D(4,5,6,1)             -0.0001         calculate D2E/DX2 analytically  !
 ! D26   D(4,5,6,20)           179.9999         calculate D2E/DX2 analytically  !
 ! D27   D(11,5,6,1)          -145.7629         calculate D2E/DX2 analytically  !
 ! D28   D(11,5,6,20)           34.2371         calculate D2E/DX2 analytically  !
 ! D29   D(12,5,6,1)          -102.1394         calculate D2E/DX2 analytically  !
 ! D30   D(12,5,6,20)           77.8606         calculate D2E/DX2 analytically  !
 ! D31   D(19,5,6,1)           180.0            calculate D2E/DX2 analytically  !
 ! D32   D(19,5,6,20)           -0.0001         calculate D2E/DX2 analytically  !
 ! D33   D(4,5,11,10)           36.2164         calculate D2E/DX2 analytically  !
 ! D34   D(4,5,11,13)          158.4647         calculate D2E/DX2 analytically  !
 ! D35   D(6,5,11,10)         -175.6658         calculate D2E/DX2 analytically  !
 ! D36   D(6,5,11,13)          -53.4175         calculate D2E/DX2 analytically  !
 ! D37   D(7,8,9,10)           179.9998         calculate D2E/DX2 analytically  !
 ! D38   D(7,8,9,21)           -60.2765         calculate D2E/DX2 analytically  !
 ! D39   D(7,8,9,22)            60.2761         calculate D2E/DX2 analytically  !
 ! D40   D(7,8,9,23)           152.633          calculate D2E/DX2 analytically  !
 ! D41   D(7,8,9,24)          -152.6336         calculate D2E/DX2 analytically  !
 ! D42   D(13,8,9,10)           -0.0003         calculate D2E/DX2 analytically  !
 ! D43   D(13,8,9,21)          119.7234         calculate D2E/DX2 analytically  !
 ! D44   D(13,8,9,22)         -119.724          calculate D2E/DX2 analytically  !
 ! D45   D(13,8,9,23)          -27.3671         calculate D2E/DX2 analytically  !
 ! D46   D(13,8,9,24)           27.3664         calculate D2E/DX2 analytically  !
 ! D47   D(7,8,13,11)         -180.0            calculate D2E/DX2 analytically  !
 ! D48   D(7,8,13,14)            0.0            calculate D2E/DX2 analytically  !
 ! D49   D(9,8,13,11)            0.0001         calculate D2E/DX2 analytically  !
 ! D50   D(9,8,13,14)         -179.9999         calculate D2E/DX2 analytically  !
 ! D51   D(8,9,10,11)            0.001          calculate D2E/DX2 analytically  !
 ! D52   D(21,9,10,11)         -34.3417         calculate D2E/DX2 analytically  !
 ! D53   D(22,9,10,11)          34.3437         calculate D2E/DX2 analytically  !
 ! D54   D(9,10,11,5)          122.8203         calculate D2E/DX2 analytically  !
 ! D55   D(9,10,11,12)         179.9989         calculate D2E/DX2 analytically  !
 ! D56   D(9,10,11,13)          -0.0012         calculate D2E/DX2 analytically  !
 ! D57   D(9,10,11,19)          86.9344         calculate D2E/DX2 analytically  !
 ! D58   D(23,10,11,5)        -117.4552         calculate D2E/DX2 analytically  !
 ! D59   D(23,10,11,12)        -60.2766         calculate D2E/DX2 analytically  !
 ! D60   D(23,10,11,13)        119.7233         calculate D2E/DX2 analytically  !
 ! D61   D(23,10,11,19)       -153.3411         calculate D2E/DX2 analytically  !
 ! D62   D(24,10,11,5)           3.0974         calculate D2E/DX2 analytically  !
 ! D63   D(24,10,11,12)         60.276          calculate D2E/DX2 analytically  !
 ! D64   D(24,10,11,13)       -119.724          calculate D2E/DX2 analytically  !
 ! D65   D(24,10,11,19)        -32.7885         calculate D2E/DX2 analytically  !
 ! D66   D(5,11,13,8)         -126.081          calculate D2E/DX2 analytically  !
 ! D67   D(5,11,13,14)          53.919          calculate D2E/DX2 analytically  !
 ! D68   D(10,11,13,8)           0.0002         calculate D2E/DX2 analytically  !
 ! D69   D(10,11,13,14)       -179.9999         calculate D2E/DX2 analytically  !
 ! D70   D(12,11,13,8)        -179.9999         calculate D2E/DX2 analytically  !
 ! D71   D(12,11,13,14)          0.0001         calculate D2E/DX2 analytically  !
 ! D72   D(19,11,13,8)         -99.9479         calculate D2E/DX2 analytically  !
 ! D73   D(19,11,13,14)         80.0521         calculate D2E/DX2 analytically  !
 --------------------------------------------------------------------------------
 Trust Radius=3.00D-01 FncErr=1.00D-07 GrdErr=1.00D-06 EigMax=2.50D+02 EigMin=1.00D-04
 Number of steps in this run=    120 maximum allowed number of steps=    144.
 GradGradGradGradGradGradGradGradGradGradGradGradGradGradGradGradGradGrad

                          Input orientation:                          
 ---------------------------------------------------------------------
 Center     Atomic      Atomic             Coordinates (Angstroms)
 Number     Number       Type             X           Y           Z
 ---------------------------------------------------------------------
      1          6           0        1.568832    0.433297   -0.023557
      2          6           0        0.768894    1.574705   -0.076739
      3          6           0       -0.620412    1.452355   -0.096702
      4          6           0       -1.209780    0.188599   -0.063485
      5          6           0       -0.409842   -0.952809   -0.010305
      6          6           0        0.979464   -0.830459    0.009660
      7          8           0       -1.258140   -5.462018   -0.318544
      8          6           0       -1.467742   -4.320826    0.066938
      9          6           0       -4.355324   -3.053946    0.273057
     10          6           0       -2.608898   -2.311413    0.681193
     11          6           0       -1.121749   -2.200361    0.844657
     12          8           0       -0.561294   -1.191301    1.247816
     13          7           0       -0.557369   -3.387118    0.472725
     14         35           0        1.282923   -3.702890    0.514971
     15          1           0        2.651261    0.528621   -0.008003
     16          1           0        1.228080    2.559317   -0.102620
     17          1           0       -1.243656    2.341643   -0.138136
     18          1           0       -2.292210    0.093275   -0.079039
     19          1           0       -0.869028   -1.937421    0.015575
     20          1           0        1.602707   -1.719747    0.051095
     21          1           0       -3.310840   -3.709612   -0.821892
     22          1           0       -3.451219   -4.302922    0.858212
     23          1           0       -3.100859   -2.155732    1.645746
     24          1           0       -2.960492   -1.562419   -0.034358
 ---------------------------------------------------------------------
                    Distance matrix (angstroms):
                    1          2          3          4          5
     1  C    0.000000
     2  C    1.394826   0.000000
     3  C    2.415909   1.394826   0.000000
     4  C    2.789652   2.415909   1.394826   0.000000
     5  C    2.415909   2.789652   2.415909   1.394826   0.000000
     6  C    1.394826   2.415909   2.789652   2.415909   1.394826
     7  O    6.544733   7.326855   6.947264   5.656577   4.598651
     8  C    5.641866   6.307176   5.837325   4.518679   3.531098
     9  C    6.880731   6.914070   5.864558   4.530099   4.479050
    10  C    5.048122   5.204407   4.327257   2.960091   2.675784
    11  C    3.863830   4.321415   3.805238   2.557265   1.671574
    12  O    2.965324   3.342848   2.966503   2.011011   1.289451
    13  N    4.400296   5.165324   4.873267   3.674087   2.486151
    14  Br   4.180885   5.335480   5.529320   4.657452   3.271745
    15  H    1.086730   2.154605   3.400735   3.876382   3.400735
    16  H    2.154604   1.086730   2.154605   3.400735   3.876382
    17  H    3.400735   2.154605   1.086730   2.154605   3.400735
    18  H    3.876382   3.400735   2.154605   1.086730   2.154605
    19  H    3.400735   3.876382   3.400735   2.154605   1.086730
    20  H    2.154604   3.400735   3.876382   3.400735   2.154605
    21  H    6.450755   6.717402   5.866022   4.492848   4.083433
    22  H    6.957744   7.295888   6.484485   5.103659   4.607337
    23  H    5.594252   5.644298   4.712435   3.463169   3.380991
    24  H    4.949523   4.873568   3.816901   2.476269   2.622598
                    6          7          8          9         10
     6  C    0.000000
     7  O    5.154215   0.000000
     8  C    4.263186   1.222641   0.000000
     9  C    5.785605   3.967537   3.160000   0.000000
    10  C    3.939609   3.570761   2.391084   1.941116   0.000000
    11  C    2.643662   3.465551   2.284935   3.392836   1.500221
    12  O    2.009272   4.601967   3.465551   4.337541   2.401748
    13  N    3.018740   2.328604   1.365742   3.817765   2.325805
    14  Br   2.932283   3.200982   2.854599   5.680623   4.136436
    15  H    2.154604   7.160141   6.363092   7.874390   6.017480
    16  H    3.400735   8.400579   7.391385   7.926175   6.249862
    17  H    3.876382   7.805760   6.669390   6.242110   4.917939
    18  H    3.400735   5.655788   4.492810   3.779604   2.541804
    19  H    2.154604   3.561717   2.457990   3.669766   1.900017
    20  H    1.086730   4.725006   4.024117   6.109623   4.299385
    21  H    5.233326   2.745517   2.135560   1.649169   2.169550
    22  H    5.692889   2.745515   2.135560   1.649168   2.169550
    23  H    4.591531   4.264455   3.138046   2.065126   1.093903
    24  H    4.007612   4.264462   3.138052   2.065117   1.093903
                   11         12         13         14         15
    11  C    0.000000
    12  O    1.222640   0.000000
    13  N    1.365742   2.328604   0.000000
    14  Br   2.854598   3.200981   1.867665   0.000000
    15  H    4.733919   3.854313   5.085217   4.477895   0.000000
    16  H    5.391991   4.369516   6.235298   6.292826   2.481556
    17  H    4.648715   3.855927   5.801969   6.583808   4.298181
    18  H    2.735682   2.531155   3.927754   5.248360   4.963112
    19  H    0.905750   1.473029   1.551690   2.827927   4.298181
    20  H    2.878089   2.528695   2.761129   2.061625   2.481556
    21  H    3.138048   4.264456   3.059679   4.784340   7.360142
    22  H    3.138053   4.264463   3.059683   4.784344   7.831629
    23  H    2.135559   2.745517   3.059678   4.784338   6.559537
    24  H    2.135559   2.745514   3.059683   4.784344   5.988733
                   16         17         18         19         20
    16  H    0.000000
    17  H    2.481556   0.000000
    18  H    4.298181   2.481556   0.000000
    19  H    4.963112   4.298181   2.481556   0.000000
    20  H    4.298181   4.963112   4.298181   2.481556   0.000000
    21  H    7.772941   6.431055   4.006418   3.131207   5.372580
    22  H    8.361182   7.072220   4.642013   3.601853   5.732923
    23  H    6.635373   5.182453   2.947343   2.772398   4.985633
    24  H    5.876862   4.266146   1.786035   2.125404   4.566711
                   21         22         23         24
    21  H    0.000000
    22  H    1.787309   0.000000
    23  H    2.923675   2.313739   0.000000
    24  H    2.313739   2.923671   1.787308   0.000000
 Stoichiometry    C10H10BrNO2
 Framework group  C1[X(C10H10BrNO2)]
 Deg. of freedom    66
 Full point group                 C1      NOp   1
 Largest Abelian subgroup         C1      NOp   1
 Largest concise Abelian subgroup C1      NOp   1
                         Standard orientation:                         
 ---------------------------------------------------------------------
 Center     Atomic      Atomic             Coordinates (Angstroms)
 Number     Number       Type             X           Y           Z
 ---------------------------------------------------------------------
      1          6           0        2.897413   -1.348278   -0.231305
      2          6           0        3.876934   -0.355302   -0.222627
      3          6           0        3.506877    0.989491   -0.234010
      4          6           0        2.157299    1.341307   -0.254073
      5          6           0        1.177777    0.348331   -0.262751
      6          6           0        1.547835   -0.996462   -0.251367
      7          8           0       -3.392327    0.377617   -0.773517
      8          6           0       -2.325916    0.781792   -0.332767
      9          6           0       -1.611345    3.845765   -0.037715
     10          6           0       -0.584657    2.254033    0.386823
     11          6           0       -0.214401    0.808312    0.540003
     12          8           0        0.860365    0.431029    0.984283
     13          7           0       -1.262158    0.046758    0.106999
     14         35           0       -1.242190   -1.820781    0.115438
     15          1           0        3.185730   -2.396026   -0.222435
     16          1           0        4.928411   -0.629408   -0.206996
     17          1           0        4.270037    1.763134   -0.227248
     18          1           0        1.868982    2.389056   -0.262942
     19          1           0        0.126300    0.622436   -0.278383
     20          1           0        0.784675   -1.770105   -0.258127
     21          1           0       -2.018585    2.720943   -1.172919
     22          1           0       -2.701333    2.721112    0.478846
     23          1           0       -0.563205    2.747959    1.362631
     24          1           0        0.119543    2.747803   -0.289134
 ---------------------------------------------------------------------
 Rotational constants (GHZ):           0.7486821           0.4672696           0.3018207
 Standard basis: def2SVP (5D, 7F)
 There are   280 symmetry adapted cartesian basis functions of A   symmetry.
 There are   264 symmetry adapted basis functions of A   symmetry.
   264 basis functions,   475 primitive gaussians,   280 cartesian basis functions
    64 alpha electrons       64 beta electrons
       nuclear repulsion energy      1264.3243208779 Hartrees.
 NAtoms=   24 NActive=   24 NUniq=   24 SFac= 1.00D+00 NAtFMM=   60 NAOKFM=F Big=F
 Integral buffers will be    131072 words long.
 Raffenetti 2 integral format.
 Two-electron integral symmetry is turned on.
 Nuclear repulsion after empirical dispersion term =     1264.3069976909 Hartrees.
 One-electron integrals computed using PRISM.
   1 Symmetry operations used in ECPInt.
 ECPInt:  NShTT=    7260 NPrTT=   28205 LenC2=    6960 LenP2D=   19870.
 LDataN:  DoStor=T MaxTD1= 4 Len=   56
 NBasis=   264 RedAO= T EigKep=  2.56D-04  NBF=   264
 NBsUse=   264 1.00D-06 EigRej= -1.00D+00 NBFU=   264
 ExpMin= 1.22D-01 ExpMax= 1.13D+05 ExpMxC= 1.70D+04 IAcc=3 IRadAn=         5 AccDes= 0.00D+00
 Harris functional with IExCor= 4639 and IRadAn=       5 diagonalized for initial guess.
 HarFok:  IExCor= 4639 AccDes= 0.00D+00 IRadAn=         5 IDoV= 1 UseB2=F ITyADJ=14
 ICtDFT=  3500011 ScaDFX=  1.000000  1.000000  1.000000  1.000000
 FoFCou: FMM=F IPFlag=           0 FMFlag=      100000 FMFlg1=           0
         NFxFlg=           0 DoJE=T BraDBF=F KetDBF=T FulRan=T
         wScrn=  0.000000 ICntrl=       500 IOpCl=  0 I1Cent=   200000004 NGrid=           0
         NMat0=    1 NMatS0=      1 NMatT0=    0 NMatD0=    1 NMtDS0=    0 NMtDT0=    0
 Petite list used in FoFCou.
 Requested convergence on RMS density matrix=1.00D-08 within 128 cycles.
 Requested convergence on MAX density matrix=1.00D-06.
 Requested convergence on             energy=1.00D-06.
 No special actions if energy rises.
 Integral accuracy reduced to 1.0D-05 until final iterations.
